<?xml version="1.0" encoding="UTF-8"?>

<!-- generated on 05/10/19 09:26:50 by Eclipse SUMO Version v1_2_0+0280-89bb845180c
<configuration xmlns:xsi="http://www.w3.org/2001/XMLSchema-instance" xsi:noNamespaceSchemaLocation="http://sumo.dlr.de/xsd/sumoConfiguration.xsd">

    <input>
        <net-file value="osm.net.xml"/>
        <route-files value="osm_pt.rou.xml,osm.passenger.trips.xml,osm.pedestrian.rou.xml"/>
        <additional-files value="osm.poly.xml,osm_stops.add.xml,edgedata.add.xml"/>
    </input>

    <output>
        <fcd-output value="fcd.xml"/>
        <fcd-output.filter-edges.input-file value="edges.txt"/>
    </output>

    <processing>
        <ignore-route-errors value="true"/>
    </processing>

    <routing>
        <device.rerouting.adaptation-steps value="180"/>
    </routing>

    <report>
        <verbose value="true"/>
        <duration-log.statistics value="true"/>
        <no-step-log value="true"/>
    </report>

    <gui_only>
        <gui-settings-file value="osm.view.xml"/>
    </gui_only>

</configuration>
-->

<meandata xmlns:xsi="http://www.w3.org/2001/XMLSchema-instance" xsi:noNamespaceSchemaLocation="http://sumo.dlr.de/xsd/meandata_file.xsd">
    <interval begin="0.00" end="6044.00" id="pedData">
        <edge id="-114024899" sampledSeconds="4.00" traveltime="1.00" overlapTraveltime="1.09" density="0.29" occupancy="0.00" waitingTime="0.00" speed="2.27" departed="2" arrived="2" entered="2" left="2" laneChangedFrom="0" laneChangedTo="0"/>
        <edge id="-114024901" sampledSeconds="394.00" traveltime="78.80" overlapTraveltime="78.92" density="0.47" occupancy="0.00" waitingTime="0.00" speed="1.74" departed="2" arrived="3" entered="3" left="2" laneChangedFrom="0" laneChangedTo="0"/>
        <edge id="-114024903#0" sampledSeconds="16.00" traveltime="1.00" overlapTraveltime="2.07" density="13.24" occupancy="0.00" waitingTime="0.00" speed="0.20" departed="1" arrived="0" entered="15" left="16" laneChangedFrom="0" laneChangedTo="0"/>
        <edge id="-114024903#1" sampledSeconds="294.00" traveltime="16.33" overlapTraveltime="16.51" density="2.44" occupancy="0.00" waitingTime="0.00" speed="1.22" departed="1" arrived="1" entered="17" left="17" laneChangedFrom="0" laneChangedTo="0"/>
        <edge id="-114024903#2" sampledSeconds="776.00" traveltime="55.43" overlapTraveltime="55.59" density="1.76" occupancy="0.00" waitingTime="0.00" speed="1.31" departed="1" arrived="1" entered="13" left="13" laneChangedFrom="0" laneChangedTo="0"/>
        <edge id="-114024903#3" sampledSeconds="0.00" departed="0" arrived="0" entered="0" left="0" laneChangedFrom="0" laneChangedTo="0"/>
        <edge id="-114024903#4" sampledSeconds="6.00" traveltime="2.00" overlapTraveltime="2.04" density="0.10" occupancy="0.00" waitingTime="0.00" speed="5.08" departed="2" arrived="1" entered="1" left="2" laneChangedFrom="0" laneChangedTo="0"/>
        <edge id="-114024903#5" sampledSeconds="70.00" traveltime="7.78" overlapTraveltime="7.95" density="1.19" occupancy="0.00" waitingTime="0.00" speed="1.25" departed="2" arrived="0" entered="7" left="9" laneChangedFrom="0" laneChangedTo="0"/>
        <edge id="-114024903#6" sampledSeconds="10.00" traveltime="2.00" overlapTraveltime="2.14" density="0.54" occupancy="0.00" waitingTime="0.00" speed="1.52" departed="1" arrived="0" entered="4" left="5" laneChangedFrom="0" laneChangedTo="0"/>
        <edge id="-114024904" sampledSeconds="17.00" traveltime="8.50" overlapTraveltime="8.55" density="0.08" occupancy="0.00" waitingTime="0.00" speed="4.28" departed="1" arrived="1" entered="1" left="1" laneChangedFrom="0" laneChangedTo="0"/>
        <edge id="-114024905" sampledSeconds="1.00" traveltime="1.00" overlapTraveltime="1.01" density="0.00" occupancy="0.00" waitingTime="0.00" speed="37.14" departed="1" arrived="0" entered="0" left="1" laneChangedFrom="0" laneChangedTo="0"/>
        <edge id="-114024906" sampledSeconds="138.00" traveltime="27.60" overlapTraveltime="27.76" density="0.61" occupancy="0.00" waitingTime="0.00" speed="1.35" departed="0" arrived="1" entered="5" left="4" laneChangedFrom="0" laneChangedTo="0"/>
        <edge id="-114207225" sampledSeconds="4.00" traveltime="1.00" overlapTraveltime="3.15" density="6.62" occupancy="0.00" waitingTime="0.00" speed="0.10" departed="1" arrived="1" entered="3" left="3" laneChangedFrom="0" laneChangedTo="0"/>
        <edge id="-114207227" sampledSeconds="11.00" traveltime="2.20" overlapTraveltime="2.29" density="0.35" occupancy="0.00" waitingTime="0.00" speed="2.37" departed="0" arrived="5" entered="5" left="0" laneChangedFrom="0" laneChangedTo="0"/>
        <edge id="-114207229" sampledSeconds="3.00" traveltime="3.00" overlapTraveltime="3.09" density="0.07" occupancy="0.00" waitingTime="0.00" speed="2.32" departed="0" arrived="1" entered="1" left="0" laneChangedFrom="0" laneChangedTo="0"/>
        <edge id="-114207232#0" sampledSeconds="3.00" traveltime="1.00" overlapTraveltime="1.36" density="0.84" occupancy="0.00" waitingTime="0.00" speed="0.59" departed="1" arrived="3" entered="5" left="3" laneChangedFrom="0" laneChangedTo="0"/>
        <edge id="-114692703#0" sampledSeconds="9.00" traveltime="2.25" overlapTraveltime="2.31" density="0.17" occupancy="0.00" waitingTime="0.00" speed="3.88" departed="2" arrived="2" entered="2" left="2" laneChangedFrom="0" laneChangedTo="0"/>
        <edge id="-114949101#0" sampledSeconds="52.00" traveltime="52.00" overlapTraveltime="52.22" density="0.17" occupancy="0.00" waitingTime="0.00" speed="1.00" departed="1" arrived="0" entered="0" left="1" laneChangedFrom="0" laneChangedTo="0"/>
        <edge id="-114952399#0" sampledSeconds="5.00" traveltime="2.50" overlapTraveltime="2.58" density="0.12" occupancy="0.00" waitingTime="0.00" speed="2.86" departed="0" arrived="2" entered="2" left="0" laneChangedFrom="0" laneChangedTo="0"/>
        <edge id="-114952399#1" sampledSeconds="58.00" traveltime="3.22" overlapTraveltime="3.38" density="2.23" occupancy="0.00" waitingTime="0.00" speed="1.33" departed="0" arrived="1" entered="18" left="17" laneChangedFrom="0" laneChangedTo="0"/>
        <edge id="-115227681" sampledSeconds="42.00" traveltime="7.00" overlapTraveltime="7.05" density="0.23" occupancy="0.00" waitingTime="0.00" speed="4.26" departed="3" arrived="3" entered="3" left="3" laneChangedFrom="0" laneChangedTo="0"/>
        <edge id="-115227682#0" sampledSeconds="66.00" traveltime="22.00" overlapTraveltime="22.06" density="0.14" occupancy="0.00" waitingTime="0.00" speed="3.57" departed="1" arrived="2" entered="2" left="1" laneChangedFrom="0" laneChangedTo="0"/>
        <edge id="-115227682#1" sampledSeconds="516.00" traveltime="51.60" overlapTraveltime="51.74" density="1.10" occupancy="0.00" waitingTime="0.00" speed="1.51" departed="1" arrived="2" entered="9" left="8" laneChangedFrom="0" laneChangedTo="0"/>
        <edge id="-115466410#0" sampledSeconds="18.00" traveltime="4.50" overlapTraveltime="4.56" density="0.20" occupancy="0.00" waitingTime="0.00" speed="3.33" departed="1" arrived="3" entered="3" left="1" laneChangedFrom="0" laneChangedTo="0"/>
        <edge id="-115466410#1" sampledSeconds="56.00" traveltime="8.00" overlapTraveltime="8.09" density="0.48" occupancy="0.00" waitingTime="0.00" speed="2.42" departed="3" arrived="1" entered="4" left="6" laneChangedFrom="0" laneChangedTo="0"/>
        <edge id="-116342915" sampledSeconds="6.00" traveltime="2.00" overlapTraveltime="2.31" density="0.72" occupancy="0.00" waitingTime="0.00" speed="0.69" departed="3" arrived="1" entered="1" left="3" laneChangedFrom="0" laneChangedTo="0"/>
        <edge id="-116391654#1" sampledSeconds="17.00" traveltime="8.50" overlapTraveltime="8.67" density="0.26" occupancy="0.00" waitingTime="0.00" speed="1.28" departed="1" arrived="1" entered="1" left="1" laneChangedFrom="0" laneChangedTo="0"/>
        <edge id="-122666828#0" sampledSeconds="1.00" traveltime="1.00" overlapTraveltime="1.01" density="0.01" occupancy="0.00" waitingTime="0.00" speed="32.51" departed="1" arrived="0" entered="0" left="1" laneChangedFrom="0" laneChangedTo="0"/>
        <edge id="-122666828#1" sampledSeconds="132.00" traveltime="16.50" overlapTraveltime="16.69" density="1.15" occupancy="0.00" waitingTime="0.00" speed="1.15" departed="0" arrived="0" entered="8" left="8" laneChangedFrom="0" laneChangedTo="0"/>
        <edge id="-122666828#2" sampledSeconds="86.00" traveltime="14.33" overlapTraveltime="14.46" density="0.59" occupancy="0.00" waitingTime="0.00" speed="1.68" departed="4" arrived="0" entered="2" left="6" laneChangedFrom="0" laneChangedTo="0"/>
        <edge id="-122868966" sampledSeconds="73.00" traveltime="24.33" overlapTraveltime="24.50" density="0.37" occupancy="0.00" waitingTime="0.00" speed="1.32" departed="2" arrived="1" entered="1" left="2" laneChangedFrom="0" laneChangedTo="0"/>
        <edge id="-125399001#0" sampledSeconds="1377.00" traveltime="59.87" overlapTraveltime="60.04" density="2.93" occupancy="0.00" waitingTime="0.00" speed="1.30" departed="1" arrived="1" entered="22" left="22" laneChangedFrom="0" laneChangedTo="0"/>
        <edge id="-125399001#1" sampledSeconds="171.00" traveltime="17.10" overlapTraveltime="17.27" density="1.28" occupancy="0.00" waitingTime="0.00" speed="1.29" departed="1" arrived="0" entered="9" left="10" laneChangedFrom="0" laneChangedTo="0"/>
        <edge id="-125399001#2" sampledSeconds="449.00" traveltime="112.25" overlapTraveltime="112.38" density="0.40" occupancy="0.00" waitingTime="0.00" speed="1.64" departed="0" arrived="2" entered="4" left="2" laneChangedFrom="0" laneChangedTo="0"/>
        <edge id="-125399001#3" sampledSeconds="799.00" traveltime="159.80" overlapTraveltime="159.98" density="0.67" occupancy="0.00" waitingTime="0.00" speed="1.23" departed="0" arrived="0" entered="5" left="5" laneChangedFrom="0" laneChangedTo="0"/>
        <edge id="-125399002#0" sampledSeconds="100.00" traveltime="12.50" overlapTraveltime="12.67" density="1.08" occupancy="0.00" waitingTime="0.00" speed="1.23" departed="1" arrived="0" entered="7" left="8" laneChangedFrom="0" laneChangedTo="0"/>
        <edge id="-125399002#1" sampledSeconds="86.00" traveltime="4.30" overlapTraveltime="4.47" density="2.62" occupancy="0.00" waitingTime="0.00" speed="1.27" departed="3" arrived="2" entered="17" left="18" laneChangedFrom="0" laneChangedTo="0"/>
        <edge id="-128643749" sampledSeconds="3.00" traveltime="3.00" overlapTraveltime="3.10" density="0.08" occupancy="0.00" waitingTime="0.00" speed="2.13" departed="0" arrived="1" entered="1" left="0" laneChangedFrom="0" laneChangedTo="0"/>
        <edge id="-133858189" sampledSeconds="213.00" traveltime="15.21" overlapTraveltime="15.39" density="1.90" occupancy="0.00" waitingTime="0.00" speed="1.22" departed="1" arrived="0" entered="13" left="14" laneChangedFrom="0" laneChangedTo="0"/>
        <edge id="-133858466" sampledSeconds="70.00" traveltime="4.67" overlapTraveltime="4.83" density="1.93" occupancy="0.00" waitingTime="0.00" speed="1.28" departed="1" arrived="1" entered="14" left="14" laneChangedFrom="0" laneChangedTo="0"/>
        <edge id="-133858467#0" sampledSeconds="202.00" traveltime="22.44" overlapTraveltime="22.61" density="1.16" occupancy="0.00" waitingTime="0.00" speed="1.28" departed="3" arrived="0" entered="6" left="9" laneChangedFrom="0" laneChangedTo="0"/>
        <edge id="-133858467#1" sampledSeconds="16.00" traveltime="4.00" overlapTraveltime="4.21" density="0.65" occupancy="0.00" waitingTime="0.00" speed="1.02" departed="2" arrived="0" entered="2" left="4" laneChangedFrom="0" laneChangedTo="0"/>
        <edge id="-133858467#2" sampledSeconds="4.00" traveltime="2.00" overlapTraveltime="2.06" density="0.09" occupancy="0.00" waitingTime="0.00" speed="3.79" departed="1" arrived="1" entered="1" left="1" laneChangedFrom="0" laneChangedTo="0"/>
        <edge id="-137482783#0" sampledSeconds="311.00" traveltime="34.56" overlapTraveltime="34.73" density="1.18" occupancy="0.00" waitingTime="0.00" speed="1.26" departed="0" arrived="1" entered="9" left="8" laneChangedFrom="0" laneChangedTo="0"/>
        <edge id="-137482783#1" sampledSeconds="18.00" traveltime="9.00" overlapTraveltime="9.18" density="0.28" occupancy="0.00" waitingTime="0.00" speed="1.17" departed="2" arrived="0" entered="0" left="2" laneChangedFrom="0" laneChangedTo="0"/>
        <edge id="-137483014#0" sampledSeconds="2300.00" traveltime="82.14" overlapTraveltime="82.32" density="3.74" occupancy="0.00" waitingTime="0.00" speed="1.24" departed="0" arrived="0" entered="28" left="28" laneChangedFrom="0" laneChangedTo="0"/>
        <edge id="-137483015#0" sampledSeconds="1846.00" traveltime="63.66" overlapTraveltime="63.83" density="3.90" occupancy="0.00" waitingTime="0.00" speed="1.23" departed="0" arrived="0" entered="29" left="29" laneChangedFrom="0" laneChangedTo="0"/>
        <edge id="-137483015#2" sampledSeconds="160.00" traveltime="4.71" overlapTraveltime="4.88" density="4.59" occupancy="0.00" waitingTime="0.00" speed="1.23" departed="0" arrived="1" entered="34" left="33" laneChangedFrom="0" laneChangedTo="0"/>
        <edge id="-137483015#3" sampledSeconds="231.00" traveltime="8.25" overlapTraveltime="8.41" density="3.52" occupancy="0.00" waitingTime="0.00" speed="1.32" departed="2" arrived="3" entered="26" left="25" laneChangedFrom="0" laneChangedTo="0"/>
        <edge id="-137534616#0" sampledSeconds="434.00" traveltime="14.97" overlapTraveltime="15.03" density="1.48" occupancy="0.00" waitingTime="0.00" speed="3.23" departed="28" arrived="1" entered="1" left="28" laneChangedFrom="0" laneChangedTo="0"/>
        <edge id="-137534616#1" sampledSeconds="276.00" traveltime="55.20" overlapTraveltime="55.33" density="0.49" occupancy="0.00" waitingTime="0.00" speed="1.69" departed="2" arrived="1" entered="3" left="4" laneChangedFrom="0" laneChangedTo="0"/>
        <edge id="-137534616#2" sampledSeconds="328.00" traveltime="41.00" overlapTraveltime="41.12" density="0.74" occupancy="0.00" waitingTime="0.00" speed="1.78" departed="2" arrived="1" entered="6" left="7" laneChangedFrom="0" laneChangedTo="0"/>
        <edge id="-137534616#3" sampledSeconds="147.00" traveltime="18.38" overlapTraveltime="18.49" density="0.72" occupancy="0.00" waitingTime="0.00" speed="1.83" departed="2" arrived="1" entered="6" left="7" laneChangedFrom="0" laneChangedTo="0"/>
        <edge id="-137534616#4" sampledSeconds="168.00" traveltime="14.00" overlapTraveltime="14.16" density="1.49" occupancy="0.00" waitingTime="0.00" speed="1.33" departed="1" arrived="0" entered="11" left="12" laneChangedFrom="0" laneChangedTo="0"/>
        <edge id="-138628388" sampledSeconds="0.00" departed="0" arrived="0" entered="0" left="0" laneChangedFrom="0" laneChangedTo="0"/>
        <edge id="-140964924#0" sampledSeconds="2.00" traveltime="1.00" overlapTraveltime="1.14" density="0.21" occupancy="0.00" waitingTime="0.00" speed="1.54" departed="0" arrived="2" entered="2" left="0" laneChangedFrom="0" laneChangedTo="0"/>
        <edge id="-140964924#1" sampledSeconds="588.00" traveltime="147.00" overlapTraveltime="147.14" density="0.44" occupancy="0.00" waitingTime="0.00" speed="1.51" departed="2" arrived="2" entered="2" left="2" laneChangedFrom="0" laneChangedTo="0"/>
        <edge id="-142575655#0" sampledSeconds="988.00" traveltime="36.59" overlapTraveltime="36.77" density="3.65" occupancy="0.00" waitingTime="0.00" speed="1.22" departed="1" arrived="0" entered="26" left="27" laneChangedFrom="0" laneChangedTo="0"/>
        <edge id="-142575655#1" sampledSeconds="930.00" traveltime="34.44" overlapTraveltime="34.61" density="3.54" occupancy="0.00" waitingTime="0.00" speed="1.26" departed="0" arrived="1" entered="27" left="26" laneChangedFrom="0" laneChangedTo="0"/>
        <edge id="-142575655#4" sampledSeconds="2286.00" traveltime="49.70" overlapTraveltime="49.87" density="6.11" occupancy="0.00" waitingTime="0.00" speed="1.25" departed="2" arrived="0" entered="44" left="46" laneChangedFrom="0" laneChangedTo="0"/>
        <edge id="-142575655#5" sampledSeconds="597.00" traveltime="13.27" overlapTraveltime="13.43" density="5.81" occupancy="0.00" waitingTime="0.00" speed="1.28" departed="0" arrived="3" entered="45" left="42" laneChangedFrom="0" laneChangedTo="0"/>
        <edge id="-142575655#6" sampledSeconds="622.00" traveltime="14.81" overlapTraveltime="14.98" density="5.36" occupancy="0.00" waitingTime="0.00" speed="1.30" departed="1" arrived="1" entered="41" left="41" laneChangedFrom="0" laneChangedTo="0"/>
        <edge id="-142575655#7" sampledSeconds="2376.00" traveltime="64.22" overlapTraveltime="64.39" density="4.97" occupancy="0.00" waitingTime="0.00" speed="1.23" departed="1" arrived="0" entered="36" left="37" laneChangedFrom="0" laneChangedTo="0"/>
        <edge id="-142575655#8" sampledSeconds="659.00" traveltime="16.47" overlapTraveltime="16.64" density="5.17" occupancy="0.00" waitingTime="0.00" speed="1.28" departed="1" arrived="2" entered="39" left="38" laneChangedFrom="0" laneChangedTo="0"/>
        <edge id="-142575655#9" sampledSeconds="1354.00" traveltime="33.02" overlapTraveltime="33.19" density="5.28" occupancy="0.00" waitingTime="0.00" speed="1.29" departed="2" arrived="0" entered="39" left="41" laneChangedFrom="0" laneChangedTo="0"/>
        <edge id="-142575656#0" sampledSeconds="2595.00" traveltime="43.98" overlapTraveltime="44.15" density="7.64" occupancy="0.00" waitingTime="0.00" speed="1.28" departed="2" arrived="1" entered="57" left="58" laneChangedFrom="0" laneChangedTo="0"/>
        <edge id="-142575656#1" sampledSeconds="273.00" traveltime="4.01" overlapTraveltime="4.19" density="9.20" occupancy="0.00" waitingTime="0.00" speed="1.22" departed="1" arrived="0" entered="67" left="68" laneChangedFrom="0" laneChangedTo="0"/>
        <edge id="-142575656#10" sampledSeconds="1105.00" traveltime="12.42" overlapTraveltime="12.58" density="11.46" occupancy="0.00" waitingTime="0.00" speed="1.28" departed="1" arrived="3" entered="88" left="86" laneChangedFrom="0" laneChangedTo="0"/>
        <edge id="-142575656#11" sampledSeconds="1534.00" traveltime="16.86" overlapTraveltime="17.02" density="11.61" occupancy="0.00" waitingTime="0.00" speed="1.30" departed="3" arrived="1" entered="88" left="90" laneChangedFrom="0" laneChangedTo="0"/>
        <edge id="-142575656#12" sampledSeconds="871.00" traveltime="9.68" overlapTraveltime="9.85" density="11.66" occupancy="0.00" waitingTime="0.00" speed="1.28" departed="1" arrived="2" entered="89" left="88" laneChangedFrom="0" laneChangedTo="0"/>
        <edge id="-142575656#14" sampledSeconds="1899.00" traveltime="27.52" overlapTraveltime="27.69" density="8.88" occupancy="0.00" waitingTime="0.00" speed="1.29" departed="3" arrived="2" entered="66" left="67" laneChangedFrom="0" laneChangedTo="0"/>
        <edge id="-142575656#15" sampledSeconds="1388.00" traveltime="21.35" overlapTraveltime="21.52" density="8.42" occupancy="0.00" waitingTime="0.00" speed="1.28" departed="1" arrived="1" entered="64" left="64" laneChangedFrom="0" laneChangedTo="0"/>
        <edge id="-142575656#3" sampledSeconds="1154.00" traveltime="36.06" overlapTraveltime="36.23" density="4.17" occupancy="0.00" waitingTime="0.00" speed="1.27" departed="1" arrived="0" entered="31" left="32" laneChangedFrom="0" laneChangedTo="0"/>
        <edge id="-142575656#4" sampledSeconds="776.00" traveltime="6.21" overlapTraveltime="6.38" density="16.38" occupancy="0.00" waitingTime="0.00" speed="1.26" departed="1" arrived="2" entered="124" left="123" laneChangedFrom="0" laneChangedTo="0"/>
        <edge id="-142575656#5" sampledSeconds="885.00" traveltime="11.06" overlapTraveltime="11.23" density="10.32" occupancy="0.00" waitingTime="0.00" speed="1.28" departed="2" arrived="1" entered="78" left="79" laneChangedFrom="0" laneChangedTo="0"/>
        <edge id="-142575656#6" sampledSeconds="2155.00" traveltime="39.18" overlapTraveltime="39.35" density="7.14" occupancy="0.00" waitingTime="0.00" speed="1.27" departed="2" arrived="2" entered="53" left="53" laneChangedFrom="0" laneChangedTo="0"/>
        <edge id="-142575656#7" sampledSeconds="4052.00" traveltime="40.93" overlapTraveltime="41.09" density="12.57" occupancy="0.00" waitingTime="0.00" speed="1.30" departed="1" arrived="3" entered="98" left="96" laneChangedFrom="0" laneChangedTo="0"/>
        <edge id="-142575656#8" sampledSeconds="1459.00" traveltime="15.04" overlapTraveltime="15.21" density="12.55" occupancy="0.00" waitingTime="0.00" speed="1.28" departed="2" arrived="2" entered="95" left="95" laneChangedFrom="0" laneChangedTo="0"/>
        <edge id="-142575656#9" sampledSeconds="303.00" traveltime="3.40" overlapTraveltime="3.57" density="11.47" occupancy="0.00" waitingTime="0.00" speed="1.28" departed="0" arrived="0" entered="89" left="89" laneChangedFrom="0" laneChangedTo="0"/>
        <edge id="-142575657#0" sampledSeconds="551.00" traveltime="50.09" overlapTraveltime="50.26" density="1.47" occupancy="0.00" waitingTime="0.00" speed="1.24" departed="1" arrived="1" entered="10" left="10" laneChangedFrom="0" laneChangedTo="0"/>
        <edge id="-142575657#1" sampledSeconds="236.00" traveltime="21.45" overlapTraveltime="21.61" density="1.31" occupancy="0.00" waitingTime="0.00" speed="1.39" departed="0" arrived="3" entered="11" left="8" laneChangedFrom="0" laneChangedTo="0"/>
        <edge id="-142575657#2" sampledSeconds="59.00" traveltime="7.38" overlapTraveltime="7.54" density="1.00" occupancy="0.00" waitingTime="0.00" speed="1.33" departed="1" arrived="2" entered="7" left="6" laneChangedFrom="0" laneChangedTo="0"/>
        <edge id="-142575657#3" sampledSeconds="370.00" traveltime="52.86" overlapTraveltime="53.00" density="0.77" occupancy="0.00" waitingTime="0.00" speed="1.50" departed="0" arrived="3" entered="7" left="4" laneChangedFrom="0" laneChangedTo="0"/>
        <edge id="-142575657#4" sampledSeconds="172.00" traveltime="86.00" overlapTraveltime="86.09" density="0.14" occupancy="0.00" waitingTime="0.00" speed="2.30" departed="0" arrived="2" entered="2" left="0" laneChangedFrom="0" laneChangedTo="0"/>
        <edge id="-142575658#0" sampledSeconds="51.00" traveltime="17.00" overlapTraveltime="17.03" density="0.08" occupancy="0.00" waitingTime="0.00" speed="6.28" departed="2" arrived="1" entered="1" left="2" laneChangedFrom="0" laneChangedTo="0"/>
        <edge id="-142575658#1" sampledSeconds="1740.00" traveltime="87.00" overlapTraveltime="87.15" density="2.37" occupancy="0.00" waitingTime="0.00" speed="1.40" departed="2" arrived="2" entered="18" left="18" laneChangedFrom="0" laneChangedTo="0"/>
        <edge id="-142575658#2" sampledSeconds="442.00" traveltime="31.57" overlapTraveltime="31.75" density="1.87" occupancy="0.00" waitingTime="0.00" speed="1.24" departed="0" arrived="0" entered="14" left="14" laneChangedFrom="0" laneChangedTo="0"/>
        <edge id="-142575659#0" sampledSeconds="0.00" departed="0" arrived="0" entered="0" left="0" laneChangedFrom="0" laneChangedTo="0"/>
        <edge id="-142575659#1" sampledSeconds="0.00" departed="0" arrived="0" entered="0" left="0" laneChangedFrom="0" laneChangedTo="0"/>
        <edge id="-142575659#2" sampledSeconds="0.00" departed="0" arrived="0" entered="0" left="0" laneChangedFrom="0" laneChangedTo="0"/>
        <edge id="-142575661#0" sampledSeconds="342.00" traveltime="11.79" overlapTraveltime="11.96" density="3.72" occupancy="0.00" waitingTime="0.00" speed="1.29" departed="2" arrived="2" entered="27" left="27" laneChangedFrom="0" laneChangedTo="0"/>
        <edge id="-142575661#1" sampledSeconds="501.00" traveltime="15.18" overlapTraveltime="15.35" density="4.30" occupancy="0.00" waitingTime="0.00" speed="1.27" departed="0" arrived="2" entered="33" left="31" laneChangedFrom="0" laneChangedTo="0"/>
        <edge id="-142575661#2" sampledSeconds="981.00" traveltime="122.63" overlapTraveltime="122.80" density="1.07" occupancy="0.00" waitingTime="0.00" speed="1.24" departed="0" arrived="0" entered="8" left="8" laneChangedFrom="0" laneChangedTo="0"/>
        <edge id="-142575661#3" sampledSeconds="96.00" traveltime="16.00" overlapTraveltime="16.16" density="0.76" occupancy="0.00" waitingTime="0.00" speed="1.31" departed="1" arrived="2" entered="5" left="4" laneChangedFrom="0" laneChangedTo="0"/>
        <edge id="-142575661#4" sampledSeconds="181.00" traveltime="45.25" overlapTraveltime="45.45" density="0.62" occupancy="0.00" waitingTime="0.00" speed="1.06" departed="0" arrived="0" entered="4" left="4" laneChangedFrom="0" laneChangedTo="0"/>
        <edge id="-142575662#0" sampledSeconds="154.00" traveltime="14.00" overlapTraveltime="14.17" density="1.41" occupancy="0.00" waitingTime="0.00" speed="1.29" departed="1" arrived="1" entered="10" left="10" laneChangedFrom="0" laneChangedTo="0"/>
        <edge id="-142575662#1" sampledSeconds="664.00" traveltime="83.00" overlapTraveltime="83.15" density="0.92" occupancy="0.00" waitingTime="0.00" speed="1.43" departed="0" arrived="2" entered="8" left="6" laneChangedFrom="0" laneChangedTo="0"/>
        <edge id="-142575662#2" sampledSeconds="69.00" traveltime="69.00" overlapTraveltime="69.10" density="0.07" occupancy="0.00" waitingTime="0.00" speed="2.21" departed="0" arrived="1" entered="1" left="0" laneChangedFrom="0" laneChangedTo="0"/>
        <edge id="-142575672#2" sampledSeconds="140.00" traveltime="20.00" overlapTraveltime="20.17" density="0.92" occupancy="0.00" waitingTime="0.00" speed="1.27" departed="0" arrived="1" entered="7" left="6" laneChangedFrom="0" laneChangedTo="0"/>
        <edge id="-142575673" sampledSeconds="44.00" traveltime="8.80" overlapTraveltime="8.82" density="0.07" occupancy="0.00" waitingTime="0.00" speed="12.15" departed="4" arrived="1" entered="1" left="4" laneChangedFrom="0" laneChangedTo="0"/>
        <edge id="-142575674#0" sampledSeconds="3.00" traveltime="1.00" overlapTraveltime="1.47" density="1.08" occupancy="0.00" waitingTime="0.00" speed="0.46" departed="0" arrived="2" entered="5" left="3" laneChangedFrom="0" laneChangedTo="0"/>
        <edge id="-142575674#1" sampledSeconds="372.00" traveltime="37.20" overlapTraveltime="37.30" density="0.81" occupancy="0.00" waitingTime="0.00" speed="2.05" departed="2" arrived="3" entered="8" left="7" laneChangedFrom="0" laneChangedTo="0"/>
        <edge id="-142575674#4" sampledSeconds="505.00" traveltime="31.56" overlapTraveltime="31.73" density="2.08" occupancy="0.00" waitingTime="0.00" speed="1.27" departed="0" arrived="0" entered="16" left="16" laneChangedFrom="0" laneChangedTo="0"/>
        <edge id="-142575677#0" sampledSeconds="165.00" traveltime="82.50" overlapTraveltime="82.68" density="0.28" occupancy="0.00" waitingTime="0.00" speed="1.19" departed="0" arrived="0" entered="2" left="2" laneChangedFrom="0" laneChangedTo="0"/>
        <edge id="-142575677#1" sampledSeconds="33.00" traveltime="16.50" overlapTraveltime="16.54" density="0.06" occupancy="0.00" waitingTime="0.00" speed="5.35" departed="1" arrived="1" entered="1" left="1" laneChangedFrom="0" laneChangedTo="0"/>
        <edge id="-142575677#2" sampledSeconds="925.00" traveltime="102.78" overlapTraveltime="102.91" density="0.88" occupancy="0.00" waitingTime="0.00" speed="1.69" departed="1" arrived="2" entered="8" left="7" laneChangedFrom="0" laneChangedTo="0"/>
        <edge id="-142575677#3" sampledSeconds="596.00" traveltime="29.80" overlapTraveltime="29.97" density="2.56" occupancy="0.00" waitingTime="0.00" speed="1.29" departed="0" arrived="1" entered="20" left="19" laneChangedFrom="0" laneChangedTo="0"/>
        <edge id="-142575684#0" sampledSeconds="281.00" traveltime="14.05" overlapTraveltime="14.20" density="2.35" occupancy="0.00" waitingTime="0.00" speed="1.41" departed="2" arrived="1" entered="18" left="19" laneChangedFrom="0" laneChangedTo="0"/>
        <edge id="-142575684#1" sampledSeconds="313.00" traveltime="8.94" overlapTraveltime="9.11" density="4.59" occupancy="0.00" waitingTime="0.00" speed="1.26" departed="3" arrived="1" entered="32" left="34" laneChangedFrom="0" laneChangedTo="0"/>
        <edge id="-142575684#4" sampledSeconds="1169.00" traveltime="55.67" overlapTraveltime="55.83" density="2.59" occupancy="0.00" waitingTime="0.00" speed="1.34" departed="1" arrived="3" entered="20" left="18" laneChangedFrom="0" laneChangedTo="0"/>
        <edge id="-142575684#5" sampledSeconds="246.00" traveltime="82.00" overlapTraveltime="82.09" density="0.21" occupancy="0.00" waitingTime="0.00" speed="2.42" departed="2" arrived="1" entered="1" left="2" laneChangedFrom="0" laneChangedTo="0"/>
        <edge id="-142575687#0" sampledSeconds="997.00" traveltime="66.47" overlapTraveltime="66.63" density="1.87" occupancy="0.00" waitingTime="0.00" speed="1.33" departed="0" arrived="1" entered="15" left="14" laneChangedFrom="0" laneChangedTo="0"/>
        <edge id="-142575687#1" sampledSeconds="433.00" traveltime="25.47" overlapTraveltime="25.63" density="2.14" occupancy="0.00" waitingTime="0.00" speed="1.31" departed="3" arrived="1" entered="14" left="16" laneChangedFrom="0" laneChangedTo="0"/>
        <edge id="-142575688#0" sampledSeconds="2294.00" traveltime="33.74" overlapTraveltime="33.90" density="8.68" occupancy="0.00" waitingTime="0.00" speed="1.30" departed="3" arrived="3" entered="65" left="65" laneChangedFrom="0" laneChangedTo="0"/>
        <edge id="-142575688#1" sampledSeconds="1680.00" traveltime="29.47" overlapTraveltime="29.63" density="7.05" occupancy="0.00" waitingTime="0.00" speed="1.34" departed="5" arrived="0" entered="52" left="57" laneChangedFrom="0" laneChangedTo="0"/>
        <edge id="-142575688#10" sampledSeconds="182.00" traveltime="5.20" overlapTraveltime="5.37" density="4.57" occupancy="0.00" waitingTime="0.00" speed="1.27" departed="0" arrived="1" entered="35" left="34" laneChangedFrom="0" laneChangedTo="0"/>