<?xml version="1.0" encoding="UTF-8"?>

<!-- generated on 05/10/19 09:26:50 by Eclipse SUMO Version v1_2_0+0280-89bb845180c
<configuration xmlns:xsi="http://www.w3.org/2001/XMLSchema-instance" xsi:noNamespaceSchemaLocation="http://sumo.dlr.de/xsd/sumoConfiguration.xsd">

    <input>
        <net-file value="osm.net.xml"/>
        <route-files value="osm_pt.rou.xml,osm.passenger.trips.xml,osm.pedestrian.rou.xml"/>
        <additional-files value="osm.poly.xml,osm_stops.add.xml,edgedata.add.xml"/>
    </input>

    <output>
        <fcd-output value="fcd.xml"/>
        <fcd-output.filter-edges.input-file value="edges.txt"/>
    </output>

    <processing>
        <ignore-route-errors value="true"/>
    </processing>

    <routing>
        <device.rerouting.adaptation-steps value="180"/>
    </routing>

    <report>
        <verbose value="true"/>
        <duration-log.statistics value="true"/>
        <no-step-log value="true"/>
    </report>

    <gui_only>
        <gui-settings-file value="osm.view.xml"/>
    </gui_only>

</configuration>
-->

<meandata xmlns:xsi="http://www.w3.org/2001/XMLSchema-instance" xsi:noNamespaceSchemaLocation="http://sumo.dlr.de/xsd/meandata_file.xsd">
    <interval begin="0.00" end="6044.00" id="vehData">
        <edge id="-114024899" sampledSeconds="0.00" departed="0" arrived="0" entered="0" left="0" laneChangedFrom="0" laneChangedTo="0"/>
        <edge id="-114024901" sampledSeconds="0.00" departed="0" arrived="0" entered="0" left="0" laneChangedFrom="0" laneChangedTo="0"/>
        <edge id="-114024903#0" sampledSeconds="0.00" departed="0" arrived="0" entered="0" left="0" laneChangedFrom="0" laneChangedTo="0"/>
        <edge id="-114024903#1" sampledSeconds="0.00" departed="0" arrived="0" entered="0" left="0" laneChangedFrom="0" laneChangedTo="0"/>
        <edge id="-114024903#2" sampledSeconds="0.00" departed="0" arrived="0" entered="0" left="0" laneChangedFrom="0" laneChangedTo="0"/>
        <edge id="-114024903#3" sampledSeconds="0.00" departed="0" arrived="0" entered="0" left="0" laneChangedFrom="0" laneChangedTo="0"/>
        <edge id="-114024903#4" sampledSeconds="0.00" departed="0" arrived="0" entered="0" left="0" laneChangedFrom="0" laneChangedTo="0"/>
        <edge id="-114024903#5" sampledSeconds="0.00" departed="0" arrived="0" entered="0" left="0" laneChangedFrom="0" laneChangedTo="0"/>
        <edge id="-114024903#6" sampledSeconds="0.00" departed="0" arrived="0" entered="0" left="0" laneChangedFrom="0" laneChangedTo="0"/>
        <edge id="-114024904" sampledSeconds="0.00" departed="0" arrived="0" entered="0" left="0" laneChangedFrom="0" laneChangedTo="0"/>
        <edge id="-114024905" sampledSeconds="0.00" departed="0" arrived="0" entered="0" left="0" laneChangedFrom="0" laneChangedTo="0"/>
        <edge id="-114024906" sampledSeconds="0.00" departed="0" arrived="0" entered="0" left="0" laneChangedFrom="0" laneChangedTo="0"/>
        <edge id="-114207225" sampledSeconds="0.00" departed="0" arrived="0" entered="0" left="0" laneChangedFrom="0" laneChangedTo="0"/>
        <edge id="-114207227" sampledSeconds="0.00" departed="0" arrived="0" entered="0" left="0" laneChangedFrom="0" laneChangedTo="0"/>
        <edge id="-114207229" sampledSeconds="0.00" departed="0" arrived="0" entered="0" left="0" laneChangedFrom="0" laneChangedTo="0"/>
        <edge id="-114207232#0" sampledSeconds="0.00" departed="0" arrived="0" entered="0" left="0" laneChangedFrom="0" laneChangedTo="0"/>
        <edge id="-114692703#0" sampledSeconds="0.00" departed="0" arrived="0" entered="0" left="0" laneChangedFrom="0" laneChangedTo="0"/>
        <edge id="-114949101#0" sampledSeconds="0.00" departed="0" arrived="0" entered="0" left="0" laneChangedFrom="0" laneChangedTo="0"/>
        <edge id="-114952399#0" sampledSeconds="0.00" departed="0" arrived="0" entered="0" left="0" laneChangedFrom="0" laneChangedTo="0"/>
        <edge id="-114952399#1" sampledSeconds="0.00" departed="0" arrived="0" entered="0" left="0" laneChangedFrom="0" laneChangedTo="0"/>
        <edge id="-115227681" sampledSeconds="0.00" departed="0" arrived="0" entered="0" left="0" laneChangedFrom="0" laneChangedTo="0"/>
        <edge id="-115227682#0" sampledSeconds="0.00" departed="0" arrived="0" entered="0" left="0" laneChangedFrom="0" laneChangedTo="0"/>
        <edge id="-115227682#1" sampledSeconds="0.00" departed="0" arrived="0" entered="0" left="0" laneChangedFrom="0" laneChangedTo="0"/>
        <edge id="-115466410#0" sampledSeconds="0.00" departed="0" arrived="0" entered="0" left="0" laneChangedFrom="0" laneChangedTo="0"/>
        <edge id="-115466410#1" sampledSeconds="0.00" departed="0" arrived="0" entered="0" left="0" laneChangedFrom="0" laneChangedTo="0"/>
        <edge id="-116342915" sampledSeconds="0.00" departed="0" arrived="0" entered="0" left="0" laneChangedFrom="0" laneChangedTo="0"/>
        <edge id="-116391654#1" sampledSeconds="0.00" departed="0" arrived="0" entered="0" left="0" laneChangedFrom="0" laneChangedTo="0"/>
        <edge id="-122666828#0" sampledSeconds="0.00" departed="0" arrived="0" entered="0" left="0" laneChangedFrom="0" laneChangedTo="0"/>
        <edge id="-122666828#1" sampledSeconds="0.00" departed="0" arrived="0" entered="0" left="0" laneChangedFrom="0" laneChangedTo="0"/>
        <edge id="-122666828#2" sampledSeconds="0.00" departed="0" arrived="0" entered="0" left="0" laneChangedFrom="0" laneChangedTo="0"/>
        <edge id="-122868966" sampledSeconds="0.00" departed="0" arrived="0" entered="0" left="0" laneChangedFrom="0" laneChangedTo="0"/>
        <edge id="-125399001#0" sampledSeconds="0.00" departed="0" arrived="0" entered="0" left="0" laneChangedFrom="0" laneChangedTo="0"/>
        <edge id="-125399001#1" sampledSeconds="0.00" departed="0" arrived="0" entered="0" left="0" laneChangedFrom="0" laneChangedTo="0"/>
        <edge id="-125399001#2" sampledSeconds="0.00" departed="0" arrived="0" entered="0" left="0" laneChangedFrom="0" laneChangedTo="0"/>
        <edge id="-125399001#3" sampledSeconds="0.00" departed="0" arrived="0" entered="0" left="0" laneChangedFrom="0" laneChangedTo="0"/>
        <edge id="-125399002#0" sampledSeconds="0.00" departed="0" arrived="0" entered="0" left="0" laneChangedFrom="0" laneChangedTo="0"/>
        <edge id="-125399002#1" sampledSeconds="0.00" departed="0" arrived="0" entered="0" left="0" laneChangedFrom="0" laneChangedTo="0"/>
        <edge id="-128643749" sampledSeconds="0.00" departed="0" arrived="0" entered="0" left="0" laneChangedFrom="0" laneChangedTo="0"/>
        <edge id="-133858189" sampledSeconds="0.00" departed="0" arrived="0" entered="0" left="0" laneChangedFrom="0" laneChangedTo="0"/>
        <edge id="-133858466" sampledSeconds="0.00" departed="0" arrived="0" entered="0" left="0" laneChangedFrom="0" laneChangedTo="0"/>
        <edge id="-133858467#0" sampledSeconds="0.00" departed="0" arrived="0" entered="0" left="0" laneChangedFrom="0" laneChangedTo="0"/>
        <edge id="-133858467#1" sampledSeconds="0.00" departed="0" arrived="0" entered="0" left="0" laneChangedFrom="0" laneChangedTo="0"/>
        <edge id="-133858467#2" sampledSeconds="0.00" departed="0" arrived="0" entered="0" left="0" laneChangedFrom="0" laneChangedTo="0"/>
        <edge id="-137482783#0" sampledSeconds="0.00" departed="0" arrived="0" entered="0" left="0" laneChangedFrom="0" laneChangedTo="0"/>
        <edge id="-137482783#1" sampledSeconds="0.00" departed="0" arrived="0" entered="0" left="0" laneChangedFrom="0" laneChangedTo="0"/>
        <edge id="-137483014#0" sampledSeconds="69.33" traveltime="9.28" overlapTraveltime="10.04" density="0.11" occupancy="0.03" waitingTime="0.00" speed="10.64" departed="2" arrived="1" entered="5" left="6" laneChangedFrom="0" laneChangedTo="0"/>
        <edge id="-137483015#0" sampledSeconds="84.36" traveltime="8.46" overlapTraveltime="9.50" density="0.18" occupancy="0.04" waitingTime="3.00" speed="8.77" departed="2" arrived="1" entered="7" left="8" laneChangedFrom="0" laneChangedTo="0"/>
        <edge id="-137483015#2" sampledSeconds="14.62" traveltime="0.83" overlapTraveltime="1.93" density="0.42" occupancy="0.06" waitingTime="0.00" speed="5.59" departed="3" arrived="0" entered="6" left="9" laneChangedFrom="0" laneChangedTo="0"/>
        <edge id="-137483015#3" sampledSeconds="10.25" traveltime="1.34" overlapTraveltime="1.85" density="0.16" occupancy="0.03" waitingTime="0.00" speed="8.56" departed="1" arrived="1" entered="5" left="5" laneChangedFrom="0" laneChangedTo="0"/>
        <edge id="-137534616#0" sampledSeconds="876.55" traveltime="18.13" overlapTraveltime="20.73" density="3.00" occupancy="1.30" waitingTime="485.00" speed="2.77" departed="0" arrived="0" entered="44" left="44" laneChangedFrom="0" laneChangedTo="0"/>
        <edge id="-137534616#1" sampledSeconds="429.67" traveltime="7.24" overlapTraveltime="7.82" density="0.76" occupancy="0.23" waitingTime="0.00" speed="12.76" departed="0" arrived="3" entered="55" left="52" laneChangedFrom="0" laneChangedTo="0"/>
        <edge id="-137534616#2" sampledSeconds="452.21" traveltime="5.86" overlapTraveltime="6.47" density="1.03" occupancy="0.29" waitingTime="0.00" speed="12.22" departed="2" arrived="2" entered="68" left="68" laneChangedFrom="0" laneChangedTo="0"/>
        <edge id="-137534616#3" sampledSeconds="265.68" traveltime="2.84" overlapTraveltime="3.45" density="1.31" occupancy="0.33" waitingTime="2.00" speed="11.50" departed="1" arrived="0" entered="76" left="77" laneChangedFrom="0" laneChangedTo="0"/>
        <edge id="-137534616#4" sampledSeconds="172.53" traveltime="1.53" overlapTraveltime="2.06" density="1.53" occupancy="0.34" waitingTime="0.00" speed="12.02" departed="0" arrived="3" entered="84" left="81" laneChangedFrom="0" laneChangedTo="0"/>
        <edge id="-138628388" sampledSeconds="0.00" departed="0" arrived="0" entered="0" left="0" laneChangedFrom="0" laneChangedTo="0"/>
        <edge id="-140964924#0" sampledSeconds="15.34" traveltime="0.31" overlapTraveltime="1.50" density="1.65" occupancy="0.10" waitingTime="0.00" speed="4.36" departed="4" arrived="2" entered="8" left="10" laneChangedFrom="0" laneChangedTo="0"/>
        <edge id="-140964924#1" sampledSeconds="191.67" traveltime="31.75" overlapTraveltime="32.68" density="0.14" occupancy="0.04" waitingTime="0.00" speed="6.96" departed="6" arrived="0" entered="0" left="6" laneChangedFrom="0" laneChangedTo="0"/>
        <edge id="-142575655#0" sampledSeconds="382.67" traveltime="4.69" overlapTraveltime="5.55" density="1.41" occupancy="0.31" waitingTime="4.00" speed="8.96" departed="1" arrived="0" entered="68" left="69" laneChangedFrom="0" laneChangedTo="0"/>
        <edge id="-142575655#1" sampledSeconds="270.30" traveltime="3.58" overlapTraveltime="3.98" density="1.03" occupancy="0.23" waitingTime="0.00" speed="12.17" departed="1" arrived="0" entered="67" left="68" laneChangedFrom="0" laneChangedTo="0"/>
        <edge id="-142575655#4" sampledSeconds="428.78" traveltime="4.97" overlapTraveltime="5.50" density="1.15" occupancy="0.26" waitingTime="0.00" speed="12.18" departed="0" arrived="0" entered="78" left="78" laneChangedFrom="0" laneChangedTo="0"/>
        <edge id="-142575655#5" sampledSeconds="136.91" traveltime="1.36" overlapTraveltime="1.76" density="1.33" occupancy="0.26" waitingTime="0.00" speed="12.53" departed="0" arrived="0" entered="78" left="78" laneChangedFrom="0" laneChangedTo="0"/>
        <edge id="-142575655#6" sampledSeconds="170.18" traveltime="1.80" overlapTraveltime="2.22" density="1.47" occupancy="0.29" waitingTime="0.00" speed="10.91" departed="1" arrived="0" entered="76" left="77" laneChangedFrom="0" laneChangedTo="0"/>
        <edge id="-142575655#7" sampledSeconds="470.10" traveltime="6.30" overlapTraveltime="6.83" density="0.98" occupancy="0.23" waitingTime="0.00" speed="12.31" departed="2" arrived="0" entered="67" left="69" laneChangedFrom="0" laneChangedTo="0"/>
        <edge id="-142575655#8" sampledSeconds="139.20" traveltime="1.69" overlapTraveltime="2.08" density="1.09" occupancy="0.22" waitingTime="0.00" speed="12.52" departed="1" arrived="1" entered="66" left="66" laneChangedFrom="0" laneChangedTo="0"/>
        <edge id="-142575655#9" sampledSeconds="266.47" traveltime="3.65" overlapTraveltime="4.05" density="1.04" occupancy="0.23" waitingTime="0.00" speed="11.71" departed="2" arrived="1" entered="64" left="65" laneChangedFrom="0" laneChangedTo="0"/>
        <edge id="-142575656#0" sampledSeconds="183.97" traveltime="5.69" overlapTraveltime="6.59" density="0.54" occupancy="0.12" waitingTime="2.00" speed="9.29" departed="1" arrived="0" entered="27" left="28" laneChangedFrom="0" laneChangedTo="0"/>
        <edge id="-142575656#1" sampledSeconds="25.84" traveltime="0.43" overlapTraveltime="0.91" density="0.87" occupancy="0.11" waitingTime="0.00" speed="10.93" departed="1" arrived="1" entered="28" left="28" laneChangedFrom="0" laneChangedTo="0"/>
        <edge id="-142575656#10" sampledSeconds="172.32" traveltime="1.55" overlapTraveltime="1.97" density="1.79" occupancy="0.34" waitingTime="0.00" speed="10.61" departed="3" arrived="0" entered="85" left="88" laneChangedFrom="0" laneChangedTo="0"/>
        <edge id="-142575656#11" sampledSeconds="151.86" traveltime="1.99" overlapTraveltime="2.54" density="1.15" occupancy="0.23" waitingTime="0.00" speed="10.59" departed="0" arrived="1" entered="60" left="59" laneChangedFrom="0" laneChangedTo="0"/>
        <edge id="-142575656#12" sampledSeconds="85.56" traveltime="1.12" overlapTraveltime="1.54" density="1.15" occupancy="0.21" waitingTime="0.00" speed="11.24" departed="2" arrived="0" entered="54" left="56" laneChangedFrom="0" laneChangedTo="0"/>
        <edge id="-142575656#14" sampledSeconds="157.25" traveltime="2.79" overlapTraveltime="3.21" density="0.74" occupancy="0.16" waitingTime="0.00" speed="12.58" departed="0" arrived="1" entered="49" left="48" laneChangedFrom="0" laneChangedTo="0"/>
        <edge id="-142575656#15" sampledSeconds="132.74" traveltime="2.31" overlapTraveltime="2.72" density="0.81" occupancy="0.17" waitingTime="0.00" speed="11.87" departed="1" arrived="0" entered="48" left="49" laneChangedFrom="0" laneChangedTo="0"/>
        <edge id="-142575656#3" sampledSeconds="113.51" traveltime="3.66" overlapTraveltime="4.07" density="0.41" occupancy="0.09" waitingTime="0.00" speed="12.49" departed="1" arrived="1" entered="27" left="27" laneChangedFrom="0" laneChangedTo="0"/>
        <edge id="-142575656#4" sampledSeconds="31.35" traveltime="0.62" overlapTraveltime="1.05" density="0.66" occupancy="0.10" waitingTime="0.00" speed="12.29" departed="0" arrived="2" entered="30" left="28" laneChangedFrom="0" laneChangedTo="0"/>
        <edge id="-142575656#5" sampledSeconds="50.48" traveltime="1.14" overlapTraveltime="1.53" density="0.59" occupancy="0.11" waitingTime="0.00" speed="12.54" departed="0" arrived="3" entered="33" left="30" laneChangedFrom="0" laneChangedTo="0"/>
        <edge id="-142575656#6" sampledSeconds="151.96" traveltime="4.20" overlapTraveltime="4.62" density="0.50" occupancy="0.11" waitingTime="0.00" speed="11.90" departed="1" arrived="0" entered="32" left="33" laneChangedFrom="0" laneChangedTo="0"/>
        <edge id="-142575656#7" sampledSeconds="553.81" traveltime="5.46" overlapTraveltime="6.37" density="1.72" occupancy="0.39" waitingTime="14.00" speed="9.15" departed="0" arrived="3" entered="87" left="84" laneChangedFrom="0" laneChangedTo="0"/>
        <edge id="-142575656#8" sampledSeconds="171.80" traveltime="1.54" overlapTraveltime="1.93" density="1.48" occupancy="0.29" waitingTime="0.00" speed="12.53" departed="0" arrived="3" entered="89" left="86" laneChangedFrom="0" laneChangedTo="0"/>
        <edge id="-142575656#9" sampledSeconds="66.39" traveltime="0.36" overlapTraveltime="0.76" density="2.51" occupancy="0.29" waitingTime="0.00" speed="12.35" departed="0" arrived="2" entered="88" left="86" laneChangedFrom="0" laneChangedTo="0"/>
        <edge id="-142575657#0" sampledSeconds="140.46" traveltime="6.29" overlapTraveltime="7.02" density="0.37" occupancy="0.09" waitingTime="3.00" speed="9.56" departed="0" arrived="2" entered="20" left="18" laneChangedFrom="0" laneChangedTo="0"/>
        <edge id="-142575657#1" sampledSeconds="66.32" traveltime="2.98" overlapTraveltime="3.39" density="0.37" occupancy="0.08" waitingTime="0.00" speed="10.28" departed="1" arrived="3" entered="19" left="17" laneChangedFrom="0" laneChangedTo="0"/>
        <edge id="-142575657#2" sampledSeconds="25.50" traveltime="1.12" overlapTraveltime="1.61" density="0.43" occupancy="0.07" waitingTime="0.00" speed="9.20" departed="0" arrived="1" entered="16" left="15" laneChangedFrom="0" laneChangedTo="0"/>
        <edge id="-142575657#3" sampledSeconds="89.54" traveltime="7.06" overlapTraveltime="7.46" density="0.19" occupancy="0.04" waitingTime="0.00" speed="11.31" departed="0" arrived="1" entered="12" left="11" laneChangedFrom="0" laneChangedTo="0"/>
        <edge id="-142575657#4" sampledSeconds="135.68" traveltime="19.15" overlapTraveltime="19.88" density="0.11" occupancy="0.03" waitingTime="0.00" speed="10.20" departed="7" arrived="0" entered="0" left="7" laneChangedFrom="0" laneChangedTo="0"/>
        <edge id="-142575658#0" sampledSeconds="10.29" traveltime="9.88" overlapTraveltime="10.29" density="0.02" occupancy="0.00" waitingTime="0.00" speed="10.86" departed="0" arrived="1" entered="1" left="0" laneChangedFrom="0" laneChangedTo="0"/>
        <edge id="-142575658#1" sampledSeconds="58.32" traveltime="10.69" overlapTraveltime="11.83" density="0.08" occupancy="0.02" waitingTime="0.00" speed="10.70" departed="1" arrived="1" entered="4" left="4" laneChangedFrom="0" laneChangedTo="0"/>
        <edge id="-142575658#2" sampledSeconds="27.48" traveltime="4.04" overlapTraveltime="4.67" density="0.12" occupancy="0.03" waitingTime="0.00" speed="9.42" departed="1" arrived="1" entered="5" left="5" laneChangedFrom="0" laneChangedTo="0"/>
        <edge id="-142575659#0" sampledSeconds="23.05" traveltime="2.48" overlapTraveltime="2.88" density="0.12" occupancy="0.05" waitingTime="0.00" speed="12.40" departed="0" arrived="0" entered="8" left="8" laneChangedFrom="0" laneChangedTo="0"/>
        <edge id="-142575659#1" sampledSeconds="70.47" traveltime="7.34" overlapTraveltime="7.88" density="0.14" occupancy="0.07" waitingTime="0.00" speed="10.94" departed="1" arrived="0" entered="8" left="9" laneChangedFrom="0" laneChangedTo="0"/>
        <edge id="-142575659#2" sampledSeconds="58.21" traveltime="6.14" overlapTraveltime="6.69" density="0.17" occupancy="0.08" waitingTime="0.00" speed="9.40" departed="2" arrived="2" entered="7" left="7" laneChangedFrom="0" laneChangedTo="0"/>
        <edge id="-142575661#0" sampledSeconds="60.59" traveltime="2.43" overlapTraveltime="3.26" density="0.66" occupancy="0.13" waitingTime="0.00" speed="6.21" departed="1" arrived="3" entered="18" left="16" laneChangedFrom="0" laneChangedTo="0"/>
        <edge id="-142575661#1" sampledSeconds="38.33" traveltime="1.96" overlapTraveltime="2.40" density="0.33" occupancy="0.06" waitingTime="0.00" speed="10.13" departed="0" arrived="1" entered="16" left="15" laneChangedFrom="0" laneChangedTo="0"/>
        <edge id="-142575661#2" sampledSeconds="191.95" traveltime="13.12" overlapTraveltime="13.72" density="0.21" occupancy="0.05" waitingTime="0.00" speed="11.44" departed="0" arrived="2" entered="14" left="12" laneChangedFrom="0" laneChangedTo="0"/>
        <edge id="-142575661#3" sampledSeconds="28.71" traveltime="3.66" overlapTraveltime="4.35" density="0.23" occupancy="0.05" waitingTime="0.00" speed="5.99" departed="2" arrived="1" entered="5" left="6" laneChangedFrom="0" laneChangedTo="0"/>
        <edge id="-142575661#4" sampledSeconds="12.87" traveltime="6.71" overlapTraveltime="7.12" density="0.04" occupancy="0.01" waitingTime="0.00" speed="7.45" departed="2" arrived="0" entered="0" left="2" laneChangedFrom="0" laneChangedTo="0"/>
        <edge id="-142575662#0" sampledSeconds="41.77" traveltime="2.79" overlapTraveltime="3.55" density="0.38" occupancy="0.08" waitingTime="0.00" speed="6.49" departed="1" arrived="2" entered="11" left="10" laneChangedFrom="0" laneChangedTo="0"/>
        <edge id="-142575662#1" sampledSeconds="93.64" traveltime="10.23" overlapTraveltime="10.60" density="0.13" occupancy="0.03" waitingTime="0.00" speed="11.69" departed="4" arrived="2" entered="5" left="7" laneChangedFrom="0" laneChangedTo="0"/>
        <edge id="-142575662#2" sampledSeconds="93.29" traveltime="15.25" overlapTraveltime="16.07" density="0.10" occupancy="0.02" waitingTime="0.00" speed="9.82" departed="6" arrived="0" entered="0" left="6" laneChangedFrom="0" laneChangedTo="0"/>
        <edge id="-142575672#2" sampledSeconds="1133.64" traveltime="33.13" overlapTraveltime="34.53" density="7.41" occupancy="1.20" waitingTime="922.00" speed="0.88" departed="1" arrived="1" entered="32" left="32" laneChangedFrom="10" laneChangedTo="10"/>
        <edge id="-142575673" sampledSeconds="20.20" traveltime="9.66" overlapTraveltime="10.10" density="0.03" occupancy="0.01" waitingTime="0.00" speed="11.08" departed="0" arrived="2" entered="2" left="0" laneChangedFrom="0" laneChangedTo="0"/>
        <edge id="-142575674#0" sampledSeconds="95.42" traveltime="0.19" overlapTraveltime="1.08" density="34.32" occupancy="0.70" waitingTime="7.00" speed="5.06" departed="1" arrived="2" entered="89" left="88" laneChangedFrom="0" laneChangedTo="0"/>
        <edge id="-142575674#1" sampledSeconds="674.23" traveltime="6.65" overlapTraveltime="7.60" density="1.46" occupancy="0.33" waitingTime="6.00" speed="10.68" departed="4" arrived="2" entered="85" left="87" laneChangedFrom="0" laneChangedTo="0"/>
        <edge id="-142575674#4" sampledSeconds="472.25" traveltime="3.64" overlapTraveltime="4.18" density="1.94" occupancy="0.42" waitingTime="0.00" speed="10.82" departed="0" arrived="1" entered="113" left="112" laneChangedFrom="0" laneChangedTo="0"/>
        <edge id="-142575677#0" sampledSeconds="80.81" traveltime="7.80" overlapTraveltime="8.18" density="0.14" occupancy="0.03" waitingTime="0.00" speed="12.65" departed="0" arrived="10" entered="10" left="0" laneChangedFrom="0" laneChangedTo="0"/>
        <edge id="-142575677#1" sampledSeconds="148.57" traveltime="7.99" overlapTraveltime="8.77" density="0.28" occupancy="0.06" waitingTime="0.00" speed="10.63" departed="1" arrived="0" entered="16" left="17" laneChangedFrom="0" laneChangedTo="0"/>
        <edge id="-142575677#2" sampledSeconds="273.30" traveltime="13.82" overlapTraveltime="14.41" density="0.26" occupancy="0.06" waitingTime="0.00" speed="12.40" departed="1" arrived="1" entered="18" left="18" laneChangedFrom="0" laneChangedTo="0"/>
        <edge id="-142575677#3" sampledSeconds="101.62" traveltime="3.95" overlapTraveltime="4.51" density="0.44" occupancy="0.10" waitingTime="0.00" speed="9.65" departed="2" arrived="3" entered="21" left="20" laneChangedFrom="0" laneChangedTo="0"/>
        <edge id="-142575684#0" sampledSeconds="54.39" traveltime="1.87" overlapTraveltime="2.33" density="0.46" occupancy="0.09" waitingTime="0.00" speed="10.64" departed="3" arrived="0" entered="21" left="24" laneChangedFrom="0" laneChangedTo="0"/>
        <edge id="-142575684#1" sampledSeconds="34.22" traveltime="1.08" overlapTraveltime="1.51" density="0.50" occupancy="0.09" waitingTime="0.00" speed="10.79" departed="1" arrived="2" entered="22" left="21" laneChangedFrom="0" laneChangedTo="0"/>
        <edge id="-142575684#4" sampledSeconds="138.07" traveltime="6.16" overlapTraveltime="6.58" density="0.31" occupancy="0.07" waitingTime="0.00" speed="12.09" departed="0" arrived="1" entered="21" left="20" laneChangedFrom="0" laneChangedTo="0"/>
        <edge id="-142575684#5" sampledSeconds="178.51" traveltime="17.93" overlapTraveltime="18.31" density="0.15" occupancy="0.04" waitingTime="0.00" speed="11.11" departed="10" arrived="0" entered="0" left="10" laneChangedFrom="0" laneChangedTo="0"/>
        <edge id="-142575687#0" sampledSeconds="97.99" traveltime="7.63" overlapTraveltime="8.23" density="0.18" occupancy="0.04" waitingTime="0.00" speed="11.32" departed="0" arrived="2" entered="12" left="10" laneChangedFrom="0" laneChangedTo="0"/>
        <edge id="-142575687#1" sampledSeconds="41.37" traveltime="4.47" overlapTraveltime="4.89" density="0.20" occupancy="0.05" waitingTime="0.00" speed="7.86" departed="4" arrived="0" entered="5" left="9" laneChangedFrom="0" laneChangedTo="0"/>
        <edge id="-142575688#0" sampledSeconds="132.07" traveltime="5.16" overlapTraveltime="6.05" density="0.50" occupancy="0.11" waitingTime="6.00" speed="8.05" departed="1" arrived="3" entered="21" left="19" laneChangedFrom="0" laneChangedTo="0"/>
        <edge id="-142575688#1" sampledSeconds="71.22" traveltime="3.40" overlapTraveltime="3.78" density="0.30" occupancy="0.07" waitingTime="0.00" speed="11.76" departed="1" arrived="3" entered="18" left="16" laneChangedFrom="0" laneChangedTo="0"/>
        <edge id="-142575688#10" sampledSeconds="22.47" traveltime="0.79" overlapTraveltime="1.31" density="0.56" occupancy="0.08" waitingTime="0.00" speed="8.85" departed="1" arrived="3" entered="17" left="15" laneChangedFrom="0" laneChangedTo="0"/>
        <edge id="-142575688#12" sampledSeconds="8.68" traveltime="0.06" overlapTraveltime="0.61" density="3.12" occupancy="0.07" waitingTime="0.00" speed="9.01" departed="0" arrived="1" entered="15" left="14" laneChangedFrom="0" laneChangedTo="0"/>
        <edge id="-142575688#13" sampledSeconds="17.49" traveltime="0.58" overlapTraveltime="1.34" density="0.62" occupancy="0.08" waitingTime="0.00" speed="7.22" departed="2" arrived="1" entered="12" left="13" laneChangedFrom="0" laneChangedTo="0"/>
        <edge id="-142575688#14" sampledSeconds="17.50" traveltime="0.60" overlapTraveltime="1.47" density="0.82" occupancy="0.09" waitingTime="0.00" speed="5.82" departed="2" arrived="1" entered="11" left="12" laneChangedFrom="0" laneChangedTo="0"/>
        <edge id="-142575688#2" sampledSeconds="9.56" traveltime="0.17" overlapTraveltime="0.58" density="0.88" occupancy="0.06" waitingTime="0.00" speed="11.64" departed="0" arrived="2" entered="17" left="15" laneChangedFrom="0" laneChangedTo="0"/>
        <edge id="-142575688#3" sampledSeconds="38.85" traveltime="1.85" overlapTraveltime="2.39" density="0.40" occupancy="0.08" waitingTime="0.00" speed="8.90" departed="3" arrived="0" entered="14" left="17" laneChangedFrom="0" laneChangedTo="0"/>
        <edge id="-142575688#5" sampledSeconds="32.66" traveltime="0.25" overlapTraveltime="1.22" density="20.01" occupancy="0.24" waitingTime="3.00" speed="4.33" departed="3" arrived="0" entered="24" left="27" laneChangedFrom="0" laneChangedTo="0"/>
        <edge id="-142575688#6" sampledSeconds="110.71" traveltime="3.31" overlapTraveltime="4.31" density="0.62" occupancy="0.13" waitingTime="3.00" speed="7.98" departed="1" arrived="2" entered="25" left="24" laneChangedFrom="0" laneChangedTo="0"/>
        <edge id="-142575688#7" sampledSeconds="61.47" traveltime="2.42" overlapTraveltime="2.81" density="0.36" occupancy="0.08" waitingTime="0.00" speed="11.74" departed="1" arrived="0" entered="21" left="22" laneChangedFrom="0" laneChangedTo="0"/>
        <edge id="-142575688#8" sampledSeconds="55.09" traveltime="2.38" overlapTraveltime="2.78" density="0.33" occupancy="0.07" waitingTime="0.00" speed="11.60" departed="1" arrived="1" entered="19" left="19" laneChangedFrom="0" laneChangedTo="0"/>
        <edge id="-142575688#9" sampledSeconds="20.69" traveltime="0.64" overlapTraveltime="1.11" density="0.60" occupancy="0.08" waitingTime="0.00" speed="9.69" departed="0" arrived="1" entered="19" left="18" laneChangedFrom="0" laneChangedTo="0"/>
        <edge id="-142575689" sampledSeconds="176.87" traveltime="9.50" overlapTraveltime="10.47" density="0.33" occupancy="0.15" waitingTime="1.00" speed="8.91" departed="2" arrived="2" entered="15" left="15" laneChangedFrom="0" laneChangedTo="0"/>
        <edge id="-142575690#0" sampledSeconds="70.76" traveltime="3.05" overlapTraveltime="3.85" density="0.58" occupancy="0.24" waitingTime="0.00" speed="6.56" departed="3" arrived="1" entered="16" left="18" laneChangedFrom="0" laneChangedTo="0"/>
        <edge id="-142575690#2" sampledSeconds="11.75" traveltime="0.92" overlapTraveltime="1.36" density="0.21" occupancy="0.07" waitingTime="0.00" speed="10.66" departed="1" arrived="1" entered="8" left="8" laneChangedFrom="0" laneChangedTo="0"/>
        <edge id="-142575690#3" sampledSeconds="39.86" traveltime="4.79" overlapTraveltime="5.18" density="0.14" occupancy="0.07" waitingTime="0.00" speed="9.93" departed="3" arrived="0" entered="5" left="8" laneChangedFrom="0" laneChangedTo="0"/>
        <edge id="-142575690#5" sampledSeconds="22.55" traveltime="2.66" overlapTraveltime="3.22" density="0.14" occupancy="0.06" waitingTime="0.00" speed="9.84" departed="0" arrived="1" entered="7" left="6" laneChangedFrom="0" laneChangedTo="0"/>
        <edge id="-142575690#6" sampledSeconds="76.04" traveltime="6.89" overlapTraveltime="7.70" density="0.16" occupancy="0.07" waitingTime="0.00" speed="11.08" departed="2" arrived="1" entered="8" left="9" laneChangedFrom="0" laneChangedTo="0"/>
        <edge id="-142575690#7" sampledSeconds="76.13" traveltime="5.19" overlapTraveltime="5.97" density="0.22" occupancy="0.10" waitingTime="0.00" speed="10.28" departed="3" arrived="1" entered="10" left="12" laneChangedFrom="0" laneChangedTo="0"/>
        <edge id="-142575690#8" sampledSeconds="33.54" traveltime="2.08" overlapTraveltime="2.72" density="0.41" occupancy="0.15" waitingTime="0.00" speed="6.85" departed="2" arrived="2" entered="11" left="11" laneChangedFrom="0" laneChangedTo="0"/>